ITEM: TIMESTEP
0
ITEM: NUMBER OF ATOMS
640
ITEM: BOX BOUNDS pp pp pp
0.0000000000000000e+00 1.9676096800000000e+01
0.0000000000000000e+00 1.9676096800000000e+01
0.0000000000000000e+00 3.9352193600000000e+01
ITEM: ATOMS id type x y z 
20 1 8.42841 3.20621 0.614878 
10 1 5.85286 4.35291 0.614878 
19 1 4.79953 5.30134 0.614878 
9 1 3.38988 7.74291 0.614878 
18 1 3.09519 9.12935 0.614878 
30 1 7.74291 3.38988 1.84463 
40 1 6.44805 3.9664 1.84463 
29 1 4.35291 5.85286 1.84463 
39 1 3.64421 7.08037 1.84463 
60 1 8.42841 3.20621 3.07439 
50 1 5.85286 4.35291 3.07439 
59 1 4.79953 5.30134 3.07439 
49 1 3.38988 7.74291 3.07439 
58 1 3.09519 9.12935 3.07439 
70 1 7.74291 3.38988 4.30415 
80 1 6.44805 3.9664 4.30415 
69 1 4.35291 5.85286 4.30415 
79 1 3.64421 7.08037 4.30415 
100 1 8.42841 3.20621 5.5339 
90 1 5.85286 4.35291 5.5339 
99 1 4.79953 5.30134 5.5339 
89 1 3.38988 7.74291 5.5339 
98 1 3.09519 9.12935 5.5339 
110 1 7.74291 3.38988 6.76366 
120 1 6.44805 3.9664 6.76366 
109 1 4.35291 5.85286 6.76366 
119 1 3.64421 7.08037 6.76366 
140 1 8.42841 3.20621 7.99341 
130 1 5.85286 4.35291 7.99341 
139 1 4.79953 5.30134 7.99341 
129 1 3.38988 7.74291 7.99341 
138 1 3.09519 9.12935 7.99341 
150 1 7.74291 3.38988 9.22317 
160 1 6.44805 3.9664 9.22317 
149 1 4.35291 5.85286 9.22317 
159 1 3.64421 7.08037 9.22317 
180 1 8.42841 3.20621 10.4529 
170 1 5.85286 4.35291 10.4529 
179 1 4.79953 5.30134 10.4529 
169 1 3.38988 7.74291 10.4529 
178 1 3.09519 9.12935 10.4529 
190 1 7.74291 3.38988 11.6827 
200 1 6.44805 3.9664 11.6827 
189 1 4.35291 5.85286 11.6827 
199 1 3.64421 7.08037 11.6827 
220 1 8.42841 3.20621 12.9124 
210 1 5.85286 4.35291 12.9124 
219 1 4.79953 5.30134 12.9124 
209 1 3.38988 7.74291 12.9124 
218 1 3.09519 9.12935 12.9124 
230 1 7.74291 3.38988 14.1422 
240 1 6.44805 3.9664 14.1422 
229 1 4.35291 5.85286 14.1422 
239 1 3.64421 7.08037 14.1422 
260 1 8.42841 3.20621 15.372 
250 1 5.85286 4.35291 15.372 
259 1 4.79953 5.30134 15.372 
249 1 3.38988 7.74291 15.372 
258 1 3.09519 9.12935 15.372 
270 1 7.74291 3.38988 16.6017 
280 1 6.44805 3.9664 16.6017 
269 1 4.35291 5.85286 16.6017 
279 1 3.64421 7.08037 16.6017 
300 1 8.42841 3.20621 17.8315 
290 1 5.85286 4.35291 17.8315 
299 1 4.79953 5.30134 17.8315 
289 1 3.38988 7.74291 17.8315 
298 1 3.09519 9.12935 17.8315 
310 1 7.74291 3.38988 19.0612 
320 1 6.44805 3.9664 19.0612 
309 1 4.35291 5.85286 19.0612 
319 1 3.64421 7.08037 19.0612 
340 1 8.42841 3.20621 20.291 
330 1 5.85286 4.35291 20.291 
339 1 4.79953 5.30134 20.291 
329 1 3.38988 7.74291 20.291 
338 1 3.09519 9.12935 20.291 
350 1 7.74291 3.38988 21.5207 
360 1 6.44805 3.9664 21.5207 
349 1 4.35291 5.85286 21.5207 
359 1 3.64421 7.08037 21.5207 
380 1 8.42841 3.20621 22.7505 
370 1 5.85286 4.35291 22.7505 
379 1 4.79953 5.30134 22.7505 
369 1 3.38988 7.74291 22.7505 
378 1 3.09519 9.12935 22.7505 
390 1 7.74291 3.38988 23.9802 
400 1 6.44805 3.9664 23.9802 
389 1 4.35291 5.85286 23.9802 
399 1 3.64421 7.08037 23.9802 
420 1 8.42841 3.20621 25.21 
410 1 5.85286 4.35291 25.21 
419 1 4.79953 5.30134 25.21 
409 1 3.38988 7.74291 25.21 
418 1 3.09519 9.12935 25.21 
430 1 7.74291 3.38988 26.4398 
440 1 6.44805 3.9664 26.4398 
429 1 4.35291 5.85286 26.4398 
439 1 3.64421 7.08037 26.4398 
460 1 8.42841 3.20621 27.6695 
450 1 5.85286 4.35291 27.6695 
459 1 4.79953 5.30134 27.6695 
449 1 3.38988 7.74291 27.6695 
458 1 3.09519 9.12935 27.6695 
470 1 7.74291 3.38988 28.8993 
480 1 6.44805 3.9664 28.8993 
469 1 4.35291 5.85286 28.8993 
479 1 3.64421 7.08037 28.8993 
500 1 8.42841 3.20621 30.129 
490 1 5.85286 4.35291 30.129 
499 1 4.79953 5.30134 30.129 
489 1 3.38988 7.74291 30.129 
498 1 3.09519 9.12935 30.129 
510 1 7.74291 3.38988 31.3588 
520 1 6.44805 3.9664 31.3588 
509 1 4.35291 5.85286 31.3588 
519 1 3.64421 7.08037 31.3588 
540 1 8.42841 3.20621 32.5885 
530 1 5.85286 4.35291 32.5885 
539 1 4.79953 5.30134 32.5885 
529 1 3.38988 7.74291 32.5885 
538 1 3.09519 9.12935 32.5885 
550 1 7.74291 3.38988 33.8183 
560 1 6.44805 3.9664 33.8183 
549 1 4.35291 5.85286 33.8183 
559 1 3.64421 7.08037 33.8183 
580 1 8.42841 3.20621 35.048 
570 1 5.85286 4.35291 35.048 
579 1 4.79953 5.30134 35.048 
569 1 3.38988 7.74291 35.048 
578 1 3.09519 9.12935 35.048 
590 1 7.74291 3.38988 36.2778 
600 1 6.44805 3.9664 36.2778 
589 1 4.35291 5.85286 36.2778 
599 1 3.64421 7.08037 36.2778 
620 1 8.42841 3.20621 37.5076 
610 1 5.85286 4.35291 37.5076 
619 1 4.79953 5.30134 37.5076 
609 1 3.38988 7.74291 37.5076 
618 1 3.09519 9.12935 37.5076 
630 1 7.74291 3.38988 38.7373 
640 1 6.44805 3.9664 38.7373 
629 1 4.35291 5.85286 38.7373 
639 1 3.64421 7.08037 38.7373 
8 1 3.38988 11.9332 0.614878 
17 1 3.9664 13.228 0.614878 
7 1 5.85286 15.3232 0.614878 
16 1 7.08037 16.0319 0.614878 
28 1 3.05805 9.83805 1.84463 
38 1 3.20621 11.2477 1.84463 
27 1 4.35291 13.8232 1.84463 
37 1 5.30134 14.8766 1.84463 
26 1 7.74291 16.2862 1.84463 
36 1 9.12935 16.5809 1.84463 
48 1 3.38988 11.9332 3.07439 
57 1 3.9664 13.228 3.07439 
47 1 5.85286 15.3232 3.07439 
56 1 7.08037 16.0319 3.07439 
68 1 3.05805 9.83805 4.30415 
78 1 3.20621 11.2477 4.30415 
67 1 4.35291 13.8232 4.30415 
77 1 5.30134 14.8766 4.30415 
66 1 7.74291 16.2862 4.30415 
76 1 9.12935 16.5809 4.30415 
88 1 3.38988 11.9332 5.5339 
97 1 3.9664 13.228 5.5339 
87 1 5.85286 15.3232 5.5339 
96 1 7.08037 16.0319 5.5339 
108 1 3.05805 9.83805 6.76366 
118 1 3.20621 11.2477 6.76366 
107 1 4.35291 13.8232 6.76366 
117 1 5.30134 14.8766 6.76366 
106 1 7.74291 16.2862 6.76366 
116 1 9.12935 16.5809 6.76366 
128 1 3.38988 11.9332 7.99341 
137 1 3.9664 13.228 7.99341 
127 1 5.85286 15.3232 7.99341 
136 1 7.08037 16.0319 7.99341 
148 1 3.05805 9.83805 9.22317 
158 1 3.20621 11.2477 9.22317 
147 1 4.35291 13.8232 9.22317 
157 1 5.30134 14.8766 9.22317 
146 1 7.74291 16.2862 9.22317 
156 1 9.12935 16.5809 9.22317 
168 1 3.38988 11.9332 10.4529 
177 1 3.9664 13.228 10.4529 
167 1 5.85286 15.3232 10.4529 
176 1 7.08037 16.0319 10.4529 
188 1 3.05805 9.83805 11.6827 
198 1 3.20621 11.2477 11.6827 
187 1 4.35291 13.8232 11.6827 
197 1 5.30134 14.8766 11.6827 
186 1 7.74291 16.2862 11.6827 
196 1 9.12935 16.5809 11.6827 
208 1 3.38988 11.9332 12.9124 
217 1 3.9664 13.228 12.9124 
207 1 5.85286 15.3232 12.9124 
216 1 7.08037 16.0319 12.9124 
228 1 3.05805 9.83805 14.1422 
238 1 3.20621 11.2477 14.1422 
227 1 4.35291 13.8232 14.1422 
237 1 5.30134 14.8766 14.1422 
226 1 7.74291 16.2862 14.1422 
236 1 9.12935 16.5809 14.1422 
248 1 3.38988 11.9332 15.372 
257 1 3.9664 13.228 15.372 
247 1 5.85286 15.3232 15.372 
256 1 7.08037 16.0319 15.372 
268 1 3.05805 9.83805 16.6017 
278 1 3.20621 11.2477 16.6017 
267 1 4.35291 13.8232 16.6017 
277 1 5.30134 14.8766 16.6017 
266 1 7.74291 16.2862 16.6017 
276 1 9.12935 16.5809 16.6017 
288 1 3.38988 11.9332 17.8315 
297 1 3.9664 13.228 17.8315 
287 1 5.85286 15.3232 17.8315 
296 1 7.08037 16.0319 17.8315 
308 1 3.05805 9.83805 19.0612 
318 1 3.20621 11.2477 19.0612 
307 1 4.35291 13.8232 19.0612 
317 1 5.30134 14.8766 19.0612 
306 1 7.74291 16.2862 19.0612 
316 1 9.12935 16.5809 19.0612 
328 1 3.38988 11.9332 20.291 
337 1 3.9664 13.228 20.291 
327 1 5.85286 15.3232 20.291 
336 1 7.08037 16.0319 20.291 
348 1 3.05805 9.83805 21.5207 
358 1 3.20621 11.2477 21.5207 
347 1 4.35291 13.8232 21.5207 
357 1 5.30134 14.8766 21.5207 
346 1 7.74291 16.2862 21.5207 
356 1 9.12935 16.5809 21.5207 
368 1 3.38988 11.9332 22.7505 
377 1 3.9664 13.228 22.7505 
367 1 5.85286 15.3232 22.7505 
376 1 7.08037 16.0319 22.7505 
388 1 3.05805 9.83805 23.9802 
398 1 3.20621 11.2477 23.9802 
387 1 4.35291 13.8232 23.9802 
397 1 5.30134 14.8766 23.9802 
386 1 7.74291 16.2862 23.9802 
396 1 9.12935 16.5809 23.9802 
408 1 3.38988 11.9332 25.21 
417 1 3.9664 13.228 25.21 
407 1 5.85286 15.3232 25.21 
416 1 7.08037 16.0319 25.21 
428 1 3.05805 9.83805 26.4398 
438 1 3.20621 11.2477 26.4398 
427 1 4.35291 13.8232 26.4398 
437 1 5.30134 14.8766 26.4398 
426 1 7.74291 16.2862 26.4398 
436 1 9.12935 16.5809 26.4398 
448 1 3.38988 11.9332 27.6695 
457 1 3.9664 13.228 27.6695 
447 1 5.85286 15.3232 27.6695 
456 1 7.08037 16.0319 27.6695 
468 1 3.05805 9.83805 28.8993 
478 1 3.20621 11.2477 28.8993 
467 1 4.35291 13.8232 28.8993 
477 1 5.30134 14.8766 28.8993 
466 1 7.74291 16.2862 28.8993 
476 1 9.12935 16.5809 28.8993 
488 1 3.38988 11.9332 30.129 
497 1 3.9664 13.228 30.129 
487 1 5.85286 15.3232 30.129 
496 1 7.08037 16.0319 30.129 
508 1 3.05805 9.83805 31.3588 
518 1 3.20621 11.2477 31.3588 
507 1 4.35291 13.8232 31.3588 
517 1 5.30134 14.8766 31.3588 
506 1 7.74291 16.2862 31.3588 
516 1 9.12935 16.5809 31.3588 
528 1 3.38988 11.9332 32.5885 
537 1 3.9664 13.228 32.5885 
527 1 5.85286 15.3232 32.5885 
536 1 7.08037 16.0319 32.5885 
548 1 3.05805 9.83805 33.8183 
558 1 3.20621 11.2477 33.8183 
547 1 4.35291 13.8232 33.8183 
557 1 5.30134 14.8766 33.8183 
546 1 7.74291 16.2862 33.8183 
556 1 9.12935 16.5809 33.8183 
568 1 3.38988 11.9332 35.048 
577 1 3.9664 13.228 35.048 
567 1 5.85286 15.3232 35.048 
576 1 7.08037 16.0319 35.048 
588 1 3.05805 9.83805 36.2778 
598 1 3.20621 11.2477 36.2778 
587 1 4.35291 13.8232 36.2778 
597 1 5.30134 14.8766 36.2778 
586 1 7.74291 16.2862 36.2778 
596 1 9.12935 16.5809 36.2778 
608 1 3.38988 11.9332 37.5076 
617 1 3.9664 13.228 37.5076 
607 1 5.85286 15.3232 37.5076 
616 1 7.08037 16.0319 37.5076 
628 1 3.05805 9.83805 38.7373 
638 1 3.20621 11.2477 38.7373 
627 1 4.35291 13.8232 38.7373 
637 1 5.30134 14.8766 38.7373 
626 1 7.74291 16.2862 38.7373 
636 1 9.12935 16.5809 38.7373 
1 1 9.83805 3.05805 0.614878 
11 1 12.5957 3.64421 0.614878 
2 1 13.8232 4.35291 0.614878 
12 1 15.7097 6.44805 0.614878 
3 1 16.2862 7.74291 0.614878 
31 1 10.5468 3.09519 1.84463 
21 1 11.9332 3.38988 1.84463 
32 1 14.3748 4.79953 1.84463 
22 1 15.3232 5.85286 1.84463 
33 1 16.4699 8.42841 1.84463 
41 1 9.83805 3.05805 3.07439 
51 1 12.5957 3.64421 3.07439 
42 1 13.8232 4.35291 3.07439 
52 1 15.7097 6.44805 3.07439 
43 1 16.2862 7.74291 3.07439 
71 1 10.5468 3.09519 4.30415 
61 1 11.9332 3.38988 4.30415 
72 1 14.3748 4.79953 4.30415 
62 1 15.3232 5.85286 4.30415 
73 1 16.4699 8.42841 4.30415 
81 1 9.83805 3.05805 5.5339 
91 1 12.5957 3.64421 5.5339 
82 1 13.8232 4.35291 5.5339 
92 1 15.7097 6.44805 5.5339 
83 1 16.2862 7.74291 5.5339 
111 1 10.5468 3.09519 6.76366 
101 1 11.9332 3.38988 6.76366 
112 1 14.3748 4.79953 6.76366 
102 1 15.3232 5.85286 6.76366 
113 1 16.4699 8.42841 6.76366 
121 1 9.83805 3.05805 7.99341 
131 1 12.5957 3.64421 7.99341 
122 1 13.8232 4.35291 7.99341 
132 1 15.7097 6.44805 7.99341 
123 1 16.2862 7.74291 7.99341 
151 1 10.5468 3.09519 9.22317 
141 1 11.9332 3.38988 9.22317 
152 1 14.3748 4.79953 9.22317 
142 1 15.3232 5.85286 9.22317 
153 1 16.4699 8.42841 9.22317 
161 1 9.83805 3.05805 10.4529 
171 1 12.5957 3.64421 10.4529 
162 1 13.8232 4.35291 10.4529 
172 1 15.7097 6.44805 10.4529 
163 1 16.2862 7.74291 10.4529 
191 1 10.5468 3.09519 11.6827 
181 1 11.9332 3.38988 11.6827 
192 1 14.3748 4.79953 11.6827 
182 1 15.3232 5.85286 11.6827 
193 1 16.4699 8.42841 11.6827 
201 1 9.83805 3.05805 12.9124 
211 1 12.5957 3.64421 12.9124 
202 1 13.8232 4.35291 12.9124 
212 1 15.7097 6.44805 12.9124 
203 1 16.2862 7.74291 12.9124 
231 1 10.5468 3.09519 14.1422 
221 1 11.9332 3.38988 14.1422 
232 1 14.3748 4.79953 14.1422 
222 1 15.3232 5.85286 14.1422 
233 1 16.4699 8.42841 14.1422 
241 1 9.83805 3.05805 15.372 
251 1 12.5957 3.64421 15.372 
242 1 13.8232 4.35291 15.372 
252 1 15.7097 6.44805 15.372 
243 1 16.2862 7.74291 15.372 
271 1 10.5468 3.09519 16.6017 
261 1 11.9332 3.38988 16.6017 
272 1 14.3748 4.79953 16.6017 
262 1 15.3232 5.85286 16.6017 
273 1 16.4699 8.42841 16.6017 
281 1 9.83805 3.05805 17.8315 
291 1 12.5957 3.64421 17.8315 
282 1 13.8232 4.35291 17.8315 
292 1 15.7097 6.44805 17.8315 
283 1 16.2862 7.74291 17.8315 
311 1 10.5468 3.09519 19.0612 
301 1 11.9332 3.38988 19.0612 
312 1 14.3748 4.79953 19.0612 
302 1 15.3232 5.85286 19.0612 
313 1 16.4699 8.42841 19.0612 
321 1 9.83805 3.05805 20.291 
331 1 12.5957 3.64421 20.291 
322 1 13.8232 4.35291 20.291 
332 1 15.7097 6.44805 20.291 
323 1 16.2862 7.74291 20.291 
351 1 10.5468 3.09519 21.5207 
341 1 11.9332 3.38988 21.5207 
352 1 14.3748 4.79953 21.5207 
342 1 15.3232 5.85286 21.5207 
353 1 16.4699 8.42841 21.5207 
361 1 9.83805 3.05805 22.7505 
371 1 12.5957 3.64421 22.7505 
362 1 13.8232 4.35291 22.7505 
372 1 15.7097 6.44805 22.7505 
363 1 16.2862 7.74291 22.7505 
391 1 10.5468 3.09519 23.9802 
381 1 11.9332 3.38988 23.9802 
392 1 14.3748 4.79953 23.9802 
382 1 15.3232 5.85286 23.9802 
393 1 16.4699 8.42841 23.9802 
401 1 9.83805 3.05805 25.21 
411 1 12.5957 3.64421 25.21 
402 1 13.8232 4.35291 25.21 
412 1 15.7097 6.44805 25.21 
403 1 16.2862 7.74291 25.21 
431 1 10.5468 3.09519 26.4398 
421 1 11.9332 3.38988 26.4398 
432 1 14.3748 4.79953 26.4398 
422 1 15.3232 5.85286 26.4398 
433 1 16.4699 8.42841 26.4398 
441 1 9.83805 3.05805 27.6695 
451 1 12.5957 3.64421 27.6695 
442 1 13.8232 4.35291 27.6695 
452 1 15.7097 6.44805 27.6695 
443 1 16.2862 7.74291 27.6695 
471 1 10.5468 3.09519 28.8993 
461 1 11.9332 3.38988 28.8993 
472 1 14.3748 4.79953 28.8993 
462 1 15.3232 5.85286 28.8993 
473 1 16.4699 8.42841 28.8993 
481 1 9.83805 3.05805 30.129 
491 1 12.5957 3.64421 30.129 
482 1 13.8232 4.35291 30.129 
492 1 15.7097 6.44805 30.129 
483 1 16.2862 7.74291 30.129 
511 1 10.5468 3.09519 31.3588 
501 1 11.9332 3.38988 31.3588 
512 1 14.3748 4.79953 31.3588 
502 1 15.3232 5.85286 31.3588 
513 1 16.4699 8.42841 31.3588 
521 1 9.83805 3.05805 32.5885 
531 1 12.5957 3.64421 32.5885 
522 1 13.8232 4.35291 32.5885 
532 1 15.7097 6.44805 32.5885 
523 1 16.2862 7.74291 32.5885 
551 1 10.5468 3.09519 33.8183 
541 1 11.9332 3.38988 33.8183 
552 1 14.3748 4.79953 33.8183 
542 1 15.3232 5.85286 33.8183 
553 1 16.4699 8.42841 33.8183 
561 1 9.83805 3.05805 35.048 
571 1 12.5957 3.64421 35.048 
562 1 13.8232 4.35291 35.048 
572 1 15.7097 6.44805 35.048 
563 1 16.2862 7.74291 35.048 
591 1 10.5468 3.09519 36.2778 
581 1 11.9332 3.38988 36.2778 
592 1 14.3748 4.79953 36.2778 
582 1 15.3232 5.85286 36.2778 
593 1 16.4699 8.42841 36.2778 
601 1 9.83805 3.05805 37.5076 
611 1 12.5957 3.64421 37.5076 
602 1 13.8232 4.35291 37.5076 
612 1 15.7097 6.44805 37.5076 
603 1 16.2862 7.74291 37.5076 
631 1 10.5468 3.09519 38.7373 
621 1 11.9332 3.38988 38.7373 
632 1 14.3748 4.79953 38.7373 
622 1 15.3232 5.85286 38.7373 
633 1 16.4699 8.42841 38.7373 
13 1 16.5809 10.5468 0.614878 
4 1 16.2862 11.9332 0.614878 
14 1 14.8766 14.3748 0.614878 
5 1 13.8232 15.3232 0.614878 
6 1 9.83805 16.618 0.614878 
15 1 11.2477 16.4699 0.614878 
23 1 16.618 9.83805 1.84463 
34 1 16.0319 12.5957 1.84463 
24 1 15.3232 13.8232 1.84463 
35 1 13.228 15.7097 1.84463 
25 1 11.9332 16.2862 1.84463 
53 1 16.5809 10.5468 3.07439 
44 1 16.2862 11.9332 3.07439 
54 1 14.8766 14.3748 3.07439 
45 1 13.8232 15.3232 3.07439 
46 1 9.83805 16.618 3.07439 
55 1 11.2477 16.4699 3.07439 
63 1 16.618 9.83805 4.30415 
74 1 16.0319 12.5957 4.30415 
64 1 15.3232 13.8232 4.30415 
75 1 13.228 15.7097 4.30415 
65 1 11.9332 16.2862 4.30415 
93 1 16.5809 10.5468 5.5339 
84 1 16.2862 11.9332 5.5339 
94 1 14.8766 14.3748 5.5339 
85 1 13.8232 15.3232 5.5339 
86 1 9.83805 16.618 5.5339 
95 1 11.2477 16.4699 5.5339 
103 1 16.618 9.83805 6.76366 
114 1 16.0319 12.5957 6.76366 
104 1 15.3232 13.8232 6.76366 
115 1 13.228 15.7097 6.76366 
105 1 11.9332 16.2862 6.76366 
133 1 16.5809 10.5468 7.99341 
124 1 16.2862 11.9332 7.99341 
134 1 14.8766 14.3748 7.99341 
125 1 13.8232 15.3232 7.99341 
126 1 9.83805 16.618 7.99341 
135 1 11.2477 16.4699 7.99341 
143 1 16.618 9.83805 9.22317 
154 1 16.0319 12.5957 9.22317 
144 1 15.3232 13.8232 9.22317 
155 1 13.228 15.7097 9.22317 
145 1 11.9332 16.2862 9.22317 
173 1 16.5809 10.5468 10.4529 
164 1 16.2862 11.9332 10.4529 
174 1 14.8766 14.3748 10.4529 
165 1 13.8232 15.3232 10.4529 
166 1 9.83805 16.618 10.4529 
175 1 11.2477 16.4699 10.4529 
183 1 16.618 9.83805 11.6827 
194 1 16.0319 12.5957 11.6827 
184 1 15.3232 13.8232 11.6827 
195 1 13.228 15.7097 11.6827 
185 1 11.9332 16.2862 11.6827 
213 1 16.5809 10.5468 12.9124 
204 1 16.2862 11.9332 12.9124 
214 1 14.8766 14.3748 12.9124 
205 1 13.8232 15.3232 12.9124 
206 1 9.83805 16.618 12.9124 
215 1 11.2477 16.4699 12.9124 
223 1 16.618 9.83805 14.1422 
234 1 16.0319 12.5957 14.1422 
224 1 15.3232 13.8232 14.1422 
235 1 13.228 15.7097 14.1422 
225 1 11.9332 16.2862 14.1422 
253 1 16.5809 10.5468 15.372 
244 1 16.2862 11.9332 15.372 
254 1 14.8766 14.3748 15.372 
245 1 13.8232 15.3232 15.372 
246 1 9.83805 16.618 15.372 
255 1 11.2477 16.4699 15.372 
263 1 16.618 9.83805 16.6017 
274 1 16.0319 12.5957 16.6017 
264 1 15.3232 13.8232 16.6017 
275 1 13.228 15.7097 16.6017 
265 1 11.9332 16.2862 16.6017 
293 1 16.5809 10.5468 17.8315 
284 1 16.2862 11.9332 17.8315 
294 1 14.8766 14.3748 17.8315 
285 1 13.8232 15.3232 17.8315 
286 1 9.83805 16.618 17.8315 
295 1 11.2477 16.4699 17.8315 
303 1 16.618 9.83805 19.0612 
314 1 16.0319 12.5957 19.0612 
304 1 15.3232 13.8232 19.0612 
315 1 13.228 15.7097 19.0612 
305 1 11.9332 16.2862 19.0612 
333 1 16.5809 10.5468 20.291 
324 1 16.2862 11.9332 20.291 
334 1 14.8766 14.3748 20.291 
325 1 13.8232 15.3232 20.291 
326 1 9.83805 16.618 20.291 
335 1 11.2477 16.4699 20.291 
343 1 16.618 9.83805 21.5207 
354 1 16.0319 12.5957 21.5207 
344 1 15.3232 13.8232 21.5207 
355 1 13.228 15.7097 21.5207 
345 1 11.9332 16.2862 21.5207 
373 1 16.5809 10.5468 22.7505 
364 1 16.2862 11.9332 22.7505 
374 1 14.8766 14.3748 22.7505 
365 1 13.8232 15.3232 22.7505 
366 1 9.83805 16.618 22.7505 
375 1 11.2477 16.4699 22.7505 
383 1 16.618 9.83805 23.9802 
394 1 16.0319 12.5957 23.9802 
384 1 15.3232 13.8232 23.9802 
395 1 13.228 15.7097 23.9802 
385 1 11.9332 16.2862 23.9802 
413 1 16.5809 10.5468 25.21 
404 1 16.2862 11.9332 25.21 
414 1 14.8766 14.3748 25.21 
405 1 13.8232 15.3232 25.21 
406 1 9.83805 16.618 25.21 
415 1 11.2477 16.4699 25.21 
423 1 16.618 9.83805 26.4398 
434 1 16.0319 12.5957 26.4398 
424 1 15.3232 13.8232 26.4398 
435 1 13.228 15.7097 26.4398 
425 1 11.9332 16.2862 26.4398 
453 1 16.5809 10.5468 27.6695 
444 1 16.2862 11.9332 27.6695 
454 1 14.8766 14.3748 27.6695 
445 1 13.8232 15.3232 27.6695 
446 1 9.83805 16.618 27.6695 
455 1 11.2477 16.4699 27.6695 
463 1 16.618 9.83805 28.8993 
474 1 16.0319 12.5957 28.8993 
464 1 15.3232 13.8232 28.8993 
475 1 13.228 15.7097 28.8993 
465 1 11.9332 16.2862 28.8993 
493 1 16.5809 10.5468 30.129 
484 1 16.2862 11.9332 30.129 
494 1 14.8766 14.3748 30.129 
485 1 13.8232 15.3232 30.129 
486 1 9.83805 16.618 30.129 
495 1 11.2477 16.4699 30.129 
503 1 16.618 9.83805 31.3588 
514 1 16.0319 12.5957 31.3588 
504 1 15.3232 13.8232 31.3588 
515 1 13.228 15.7097 31.3588 
505 1 11.9332 16.2862 31.3588 
533 1 16.5809 10.5468 32.5885 
524 1 16.2862 11.9332 32.5885 
534 1 14.8766 14.3748 32.5885 
525 1 13.8232 15.3232 32.5885 
526 1 9.83805 16.618 32.5885 
535 1 11.2477 16.4699 32.5885 
543 1 16.618 9.83805 33.8183 
554 1 16.0319 12.5957 33.8183 
544 1 15.3232 13.8232 33.8183 
555 1 13.228 15.7097 33.8183 
545 1 11.9332 16.2862 33.8183 
573 1 16.5809 10.5468 35.048 
564 1 16.2862 11.9332 35.048 
574 1 14.8766 14.3748 35.048 
565 1 13.8232 15.3232 35.048 
566 1 9.83805 16.618 35.048 
575 1 11.2477 16.4699 35.048 
583 1 16.618 9.83805 36.2778 
594 1 16.0319 12.5957 36.2778 
584 1 15.3232 13.8232 36.2778 
595 1 13.228 15.7097 36.2778 
585 1 11.9332 16.2862 36.2778 
613 1 16.5809 10.5468 37.5076 
604 1 16.2862 11.9332 37.5076 
614 1 14.8766 14.3748 37.5076 
605 1 13.8232 15.3232 37.5076 
606 1 9.83805 16.618 37.5076 
615 1 11.2477 16.4699 37.5076 
623 1 16.618 9.83805 38.7373 
634 1 16.0319 12.5957 38.7373 
624 1 15.3232 13.8232 38.7373 
635 1 13.228 15.7097 38.7373 
625 1 11.9332 16.2862 38.7373 
ITEM: TIMESTEP
1335
ITEM: NUMBER OF ATOMS
640
ITEM: BOX BOUNDS pp pp pp
0.0000000000000000e+00 1.9676096800000000e+01
0.0000000000000000e+00 1.9676096800000000e+01
-2.8771336939717335e-01 3.9639906969397344e+01
ITEM: ATOMS id type x y z 
20 1 8.40497 3.10084 0.336156 
10 1 5.79024 4.26499 0.336156 
19 1 4.71863 5.22987 0.336156 
9 1 3.28755 7.70859 0.336156 
18 1 2.98774 9.11907 0.336156 
30 1 7.71052 3.28692 1.58389 
40 1 6.3932 3.87343 1.58389 
29 1 4.26619 5.7886 1.58389 
39 1 3.54519 7.0374 1.58389 
60 1 8.40497 3.10084 2.83163 
50 1 5.79024 4.26499 2.83163 
59 1 4.71863 5.22987 2.83163 
49 1 3.28755 7.70859 2.83163 
58 1 2.98774 9.11907 2.83163 
70 1 7.71052 3.28692 4.07937 
80 1 6.3932 3.87343 4.07937 
69 1 4.26619 5.7886 4.07937 
79 1 3.54519 7.0374 4.07937 
100 1 8.40497 3.10084 5.32711 
90 1 5.79024 4.26499 5.32711 
99 1 4.71863 5.22987 5.32711 
89 1 3.28755 7.70859 5.32711 
98 1 2.98774 9.11907 5.32711 
110 1 7.71052 3.28692 6.57485 
120 1 6.3932 3.87343 6.57485 
109 1 4.26619 5.7886 6.57485 
119 1 3.54519 7.0374 6.57485 
140 1 8.40497 3.10084 7.82258 
130 1 5.79024 4.26499 7.82258 
139 1 4.71863 5.22987 7.82258 
129 1 3.28755 7.70859 7.82258 
138 1 2.98774 9.11907 7.82258 
150 1 7.71052 3.28692 9.07032 
160 1 6.3932 3.87343 9.07032 
149 1 4.26619 5.7886 9.07032 
159 1 3.54519 7.0374 9.07032 
28 1 2.95011 9.83703 1.58389 
68 1 2.95011 9.83703 4.07937 
108 1 2.95011 9.83703 6.57485 
148 1 2.95011 9.83703 9.07032 
180 1 8.40497 3.10084 10.3181 
170 1 5.79024 4.26499 10.3181 
179 1 4.71863 5.22987 10.3181 
169 1 3.28755 7.70859 10.3181 
178 1 2.98774 9.11907 10.3181 
190 1 7.71052 3.28692 11.5658 
200 1 6.3932 3.87343 11.5658 
189 1 4.26619 5.7886 11.5658 
199 1 3.54519 7.0374 11.5658 
220 1 8.40497 3.10084 12.8135 
210 1 5.79024 4.26499 12.8135 
219 1 4.71863 5.22987 12.8135 
209 1 3.28755 7.70859 12.8135 
218 1 2.98774 9.11907 12.8135 
230 1 7.71052 3.28692 14.0613 
240 1 6.3932 3.87343 14.0613 
229 1 4.26619 5.7886 14.0613 
239 1 3.54519 7.0374 14.0613 
260 1 8.40497 3.10084 15.309 
250 1 5.79024 4.26499 15.309 
259 1 4.71863 5.22987 15.309 
249 1 3.28755 7.70859 15.309 
258 1 2.98774 9.11907 15.309 
270 1 7.71052 3.28692 16.5568 
280 1 6.3932 3.87343 16.5568 
269 1 4.26619 5.7886 16.5568 
279 1 3.54519 7.0374 16.5568 
300 1 8.40497 3.10084 17.8045 
290 1 5.79024 4.26499 17.8045 
299 1 4.71863 5.22987 17.8045 
289 1 3.28755 7.70859 17.8045 
298 1 2.98774 9.11907 17.8045 
310 1 7.71052 3.28692 19.0522 
320 1 6.3932 3.87343 19.0522 
309 1 4.26619 5.7886 19.0522 
319 1 3.54519 7.0374 19.0522 
188 1 2.95011 9.83703 11.5658 
228 1 2.95011 9.83703 14.0613 
268 1 2.95011 9.83703 16.5568 
308 1 2.95011 9.83703 19.0522 
340 1 8.40497 3.10084 20.3 
330 1 5.79024 4.26499 20.3 
339 1 4.71863 5.22987 20.3 
329 1 3.28755 7.70859 20.3 
338 1 2.98774 9.11907 20.3 
350 1 7.71052 3.28692 21.5477 
360 1 6.3932 3.87343 21.5477 
349 1 4.26619 5.7886 21.5477 
359 1 3.54519 7.0374 21.5477 
380 1 8.40497 3.10084 22.7954 
370 1 5.79024 4.26499 22.7954 
379 1 4.71863 5.22987 22.7954 
369 1 3.28755 7.70859 22.7954 
378 1 2.98774 9.11907 22.7954 
390 1 7.71052 3.28692 24.0432 
400 1 6.3932 3.87343 24.0432 
389 1 4.26619 5.7886 24.0432 
399 1 3.54519 7.0374 24.0432 
420 1 8.40497 3.10084 25.2909 
410 1 5.79024 4.26499 25.2909 
419 1 4.71863 5.22987 25.2909 
409 1 3.28755 7.70859 25.2909 
418 1 2.98774 9.11907 25.2909 
430 1 7.71052 3.28692 26.5387 
440 1 6.3932 3.87343 26.5387 
429 1 4.26619 5.7886 26.5387 
439 1 3.54519 7.0374 26.5387 
460 1 8.40497 3.10084 27.7864 
450 1 5.79024 4.26499 27.7864 
459 1 4.71863 5.22987 27.7864 
449 1 3.28755 7.70859 27.7864 
458 1 2.98774 9.11907 27.7864 
470 1 7.71052 3.28692 29.0341 
480 1 6.3932 3.87343 29.0341 
469 1 4.26619 5.7886 29.0341 
479 1 3.54519 7.0374 29.0341 
348 1 2.95011 9.83703 21.5477 
388 1 2.95011 9.83703 24.0432 
428 1 2.95011 9.83703 26.5387 
468 1 2.95011 9.83703 29.0341 
500 1 8.40497 3.10084 30.2819 
490 1 5.79024 4.26499 30.2819 
499 1 4.71863 5.22987 30.2819 
489 1 3.28755 7.70859 30.2819 
498 1 2.98774 9.11907 30.2819 
510 1 7.71052 3.28692 31.5296 
520 1 6.3932 3.87343 31.5296 
509 1 4.26619 5.7886 31.5296 
519 1 3.54519 7.0374 31.5296 
540 1 8.40497 3.10084 32.7773 
530 1 5.79024 4.26499 32.7773 
539 1 4.71863 5.22987 32.7773 
529 1 3.28755 7.70859 32.7773 
538 1 2.98774 9.11907 32.7773 
550 1 7.71052 3.28692 34.0251 
560 1 6.3932 3.87343 34.0251 
549 1 4.26619 5.7886 34.0251 
559 1 3.54519 7.0374 34.0251 
580 1 8.40497 3.10084 35.2728 
570 1 5.79024 4.26499 35.2728 
579 1 4.71863 5.22987 35.2728 
569 1 3.28755 7.70859 35.2728 
578 1 2.98774 9.11907 35.2728 
590 1 7.71052 3.28692 36.5206 
600 1 6.3932 3.87343 36.5206 
589 1 4.26619 5.7886 36.5206 
599 1 3.54519 7.0374 36.5206 
620 1 8.40497 3.10084 37.7683 
610 1 5.79024 4.26499 37.7683 
619 1 4.71863 5.22987 37.7683 
609 1 3.28755 7.70859 37.7683 
618 1 2.98774 9.11907 37.7683 
630 1 7.71052 3.28692 39.016 
640 1 6.3932 3.87343 39.016 
629 1 4.26619 5.7886 39.016 
639 1 3.54519 7.0374 39.016 
508 1 2.95011 9.83703 31.5296 
548 1 2.95011 9.83703 34.0251 
588 1 2.95011 9.83703 36.5206 
628 1 2.95011 9.83703 39.016 
8 1 3.28692 11.9656 0.336156 
17 1 3.87343 13.2829 0.336156 
7 1 5.7886 15.4099 0.336156 
16 1 7.0374 16.1309 0.336156 
126 1 9.83703 16.726 7.82258 
38 1 3.10084 11.2711 1.58389 
27 1 4.26499 13.8859 1.58389 
37 1 5.22987 14.9575 1.58389 
26 1 7.70859 16.3886 1.58389 
36 1 9.11907 16.6884 1.58389 
48 1 3.28692 11.9656 2.83163 
57 1 3.87343 13.2829 2.83163 
47 1 5.7886 15.4099 2.83163 
56 1 7.0374 16.1309 2.83163 
86 1 9.83703 16.726 5.32711 
78 1 3.10084 11.2711 4.07937 
67 1 4.26499 13.8859 4.07937 
77 1 5.22987 14.9575 4.07937 
66 1 7.70859 16.3886 4.07937 
76 1 9.11907 16.6884 4.07937 
88 1 3.28692 11.9656 5.32711 
97 1 3.87343 13.2829 5.32711 
87 1 5.7886 15.4099 5.32711 
96 1 7.0374 16.1309 5.32711 
46 1 9.83703 16.726 2.83163 
118 1 3.10084 11.2711 6.57485 
107 1 4.26499 13.8859 6.57485 
117 1 5.22987 14.9575 6.57485 
106 1 7.70859 16.3886 6.57485 
116 1 9.11907 16.6884 6.57485 
128 1 3.28692 11.9656 7.82258 
137 1 3.87343 13.2829 7.82258 
127 1 5.7886 15.4099 7.82258 
136 1 7.0374 16.1309 7.82258 
6 1 9.83703 16.726 0.336156 
158 1 3.10084 11.2711 9.07032 
147 1 4.26499 13.8859 9.07032 
157 1 5.22987 14.9575 9.07032 
146 1 7.70859 16.3886 9.07032 
156 1 9.11907 16.6884 9.07032 
168 1 3.28692 11.9656 10.3181 
177 1 3.87343 13.2829 10.3181 
167 1 5.7886 15.4099 10.3181 
176 1 7.0374 16.1309 10.3181 
286 1 9.83703 16.726 17.8045 
198 1 3.10084 11.2711 11.5658 
187 1 4.26499 13.8859 11.5658 
197 1 5.22987 14.9575 11.5658 
186 1 7.70859 16.3886 11.5658 
196 1 9.11907 16.6884 11.5658 
208 1 3.28692 11.9656 12.8135 
217 1 3.87343 13.2829 12.8135 
207 1 5.7886 15.4099 12.8135 
216 1 7.0374 16.1309 12.8135 
246 1 9.83703 16.726 15.309 
238 1 3.10084 11.2711 14.0613 
227 1 4.26499 13.8859 14.0613 
237 1 5.22987 14.9575 14.0613 
226 1 7.70859 16.3886 14.0613 
236 1 9.11907 16.6884 14.0613 
248 1 3.28692 11.9656 15.309 
257 1 3.87343 13.2829 15.309 
247 1 5.7886 15.4099 15.309 
256 1 7.0374 16.1309 15.309 
206 1 9.83703 16.726 12.8135 
278 1 3.10084 11.2711 16.5568 
267 1 4.26499 13.8859 16.5568 
277 1 5.22987 14.9575 16.5568 
266 1 7.70859 16.3886 16.5568 
276 1 9.11907 16.6884 16.5568 
288 1 3.28692 11.9656 17.8045 
297 1 3.87343 13.2829 17.8045 
287 1 5.7886 15.4099 17.8045 
296 1 7.0374 16.1309 17.8045 
166 1 9.83703 16.726 10.3181 
318 1 3.10084 11.2711 19.0522 
307 1 4.26499 13.8859 19.0522 
317 1 5.22987 14.9575 19.0522 
306 1 7.70859 16.3886 19.0522 
316 1 9.11907 16.6884 19.0522 
328 1 3.28692 11.9656 20.3 
337 1 3.87343 13.2829 20.3 
327 1 5.7886 15.4099 20.3 
336 1 7.0374 16.1309 20.3 
446 1 9.83703 16.726 27.7864 
358 1 3.10084 11.2711 21.5477 
347 1 4.26499 13.8859 21.5477 
357 1 5.22987 14.9575 21.5477 
346 1 7.70859 16.3886 21.5477 
356 1 9.11907 16.6884 21.5477 
368 1 3.28692 11.9656 22.7954 
377 1 3.87343 13.2829 22.7954 
367 1 5.7886 15.4099 22.7954 
376 1 7.0374 16.1309 22.7954 
406 1 9.83703 16.726 25.2909 
398 1 3.10084 11.2711 24.0432 
387 1 4.26499 13.8859 24.0432 
397 1 5.22987 14.9575 24.0432 
386 1 7.70859 16.3886 24.0432 
396 1 9.11907 16.6884 24.0432 
408 1 3.28692 11.9656 25.2909 
417 1 3.87343 13.2829 25.2909 
407 1 5.7886 15.4099 25.2909 
416 1 7.0374 16.1309 25.2909 
366 1 9.83703 16.726 22.7954 
438 1 3.10084 11.2711 26.5387 
427 1 4.26499 13.8859 26.5387 
437 1 5.22987 14.9575 26.5387 
426 1 7.70859 16.3886 26.5387 
436 1 9.11907 16.6884 26.5387 
448 1 3.28692 11.9656 27.7864 
457 1 3.87343 13.2829 27.7864 
447 1 5.7886 15.4099 27.7864 
456 1 7.0374 16.1309 27.7864 
326 1 9.83703 16.726 20.3 
478 1 3.10084 11.2711 29.0341 
467 1 4.26499 13.8859 29.0341 
477 1 5.22987 14.9575 29.0341 
466 1 7.70859 16.3886 29.0341 
476 1 9.11907 16.6884 29.0341 
488 1 3.28692 11.9656 30.2819 
497 1 3.87343 13.2829 30.2819 
487 1 5.7886 15.4099 30.2819 
496 1 7.0374 16.1309 30.2819 
606 1 9.83703 16.726 37.7683 
518 1 3.10084 11.2711 31.5296 
507 1 4.26499 13.8859 31.5296 
517 1 5.22987 14.9575 31.5296 
506 1 7.70859 16.3886 31.5296 
516 1 9.11907 16.6884 31.5296 
528 1 3.28692 11.9656 32.7773 
537 1 3.87343 13.2829 32.7773 
527 1 5.7886 15.4099 32.7773 
536 1 7.0374 16.1309 32.7773 
566 1 9.83703 16.726 35.2728 
558 1 3.10084 11.2711 34.0251 
547 1 4.26499 13.8859 34.0251 
557 1 5.22987 14.9575 34.0251 
546 1 7.70859 16.3886 34.0251 
556 1 9.11907 16.6884 34.0251 
568 1 3.28692 11.9656 35.2728 
577 1 3.87343 13.2829 35.2728 
567 1 5.7886 15.4099 35.2728 
576 1 7.0374 16.1309 35.2728 
526 1 9.83703 16.726 32.7773 
598 1 3.10084 11.2711 36.5206 
587 1 4.26499 13.8859 36.5206 
597 1 5.22987 14.9575 36.5206 
586 1 7.70859 16.3886 36.5206 
596 1 9.11907 16.6884 36.5206 
608 1 3.28692 11.9656 37.7683 
617 1 3.87343 13.2829 37.7683 
607 1 5.7886 15.4099 37.7683 
616 1 7.0374 16.1309 37.7683 
486 1 9.83703 16.726 30.2819 
638 1 3.10084 11.2711 39.016 
627 1 4.26499 13.8859 39.016 
637 1 5.22987 14.9575 39.016 
626 1 7.70859 16.3886 39.016 
636 1 9.11907 16.6884 39.016 
1 1 9.83906 2.95011 0.336156 
11 1 12.6387 3.54519 0.336156 
2 1 13.8875 4.26619 0.336156 
12 1 15.8027 6.3932 0.336156 
3 1 16.3892 7.71052 0.336156 
31 1 10.557 2.98774 1.58389 
21 1 11.9675 3.28755 1.58389 
32 1 14.4462 4.71863 1.58389 
22 1 15.4111 5.79024 1.58389 