Position data 

 640 atoms 

1 atom types 

  0.0000000000 19.6760968000 xlo xhi 
  0.0000000000 19.6760968000 ylo yhi 
  0.0000000000 39.3521936000 zlo zhi 
 
Masses 

 1 12.0107000 C 
 
Atoms 
 
 1 1  9.8380484000  3.0580478000  0.6148780000  
 2 1 13.8232327000  4.3529127000  0.6148780000  
 3 1 16.2862121000  7.7429130000  0.6148780000  
 4 1 16.2862121000 11.9331838000  0.6148780000  
 5 1 13.8232327000 15.3231841000  0.6148780000  
 6 1  9.8380484000 16.6180490000  0.6148780000  
 7 1  5.8528641000 15.3231841000  0.6148780000  
 8 1  3.3898847000 11.9331838000  0.6148780000  
 9 1  3.3898847000  7.7429130000  0.6148780000  
 10 1  5.8528641000  4.3529127000  0.6148780000  
 11 1 12.5957231000  3.6442097000  0.6148780000  
 12 1 15.7097011000  6.4480481000  0.6148780000  
 13 1 16.5809074000 10.5467514000  0.6148780000  
 14 1 14.8765707000 14.3747543000  0.6148780000  
 15 1 11.2476898000 16.4698897000  0.6148780000  
 16 1  7.0803737000 16.0318871000  0.6148780000  
 17 1  3.9663957000 13.2280487000  0.6148780000  
 18 1  3.0951894000  9.1293454000  0.6148780000  
 19 1  4.7995261000  5.3013425000  0.6148780000  
 20 1  8.4284070000  3.2062071000  0.6148780000  
 21 1 11.9331838000  3.3898847000  1.8446341000  
 22 1 15.3231841000  5.8528641000  1.8446341000  
 23 1 16.6180490000  9.8380484000  1.8446341000  
 24 1 15.3231841000 13.8232327000  1.8446341000  
 25 1 11.9331838000 16.2862121000  1.8446341000  
 26 1  7.7429130000 16.2862121000  1.8446341000  
 27 1  4.3529127000 13.8232327000  1.8446341000  
 28 1  3.0580478000  9.8380484000  1.8446341000  
 29 1  4.3529127000  5.8528641000  1.8446341000  
 30 1  7.7429130000  3.3898847000  1.8446341000  
 31 1 10.5467514000  3.0951894000  1.8446341000  
 32 1 14.3747543000  4.7995261000  1.8446341000  
 33 1 16.4698897000  8.4284070000  1.8446341000  
 34 1 16.0318871000 12.5957231000  1.8446341000  
 35 1 13.2280487000 15.7097011000  1.8446341000  
 36 1  9.1293454000 16.5809074000  1.8446341000  
 37 1  5.3013425000 14.8765707000  1.8446341000  
 38 1  3.2062071000 11.2476898000  1.8446341000  
 39 1  3.6442097000  7.0803737000  1.8446341000  
 40 1  6.4480481000  3.9663957000  1.8446341000  
 41 1  9.8380484000  3.0580478000  3.0743901000  
 42 1 13.8232327000  4.3529127000  3.0743901000  
 43 1 16.2862121000  7.7429130000  3.0743901000  
 44 1 16.2862121000 11.9331838000  3.0743901000  
 45 1 13.8232327000 15.3231841000  3.0743901000  
 46 1  9.8380484000 16.6180490000  3.0743901000  
 47 1  5.8528641000 15.3231841000  3.0743901000  
 48 1  3.3898847000 11.9331838000  3.0743901000  
 49 1  3.3898847000  7.7429130000  3.0743901000  
 50 1  5.8528641000  4.3529127000  3.0743901000  
 51 1 12.5957231000  3.6442097000  3.0743901000  
 52 1 15.7097011000  6.4480481000  3.0743901000  
 53 1 16.5809074000 10.5467514000  3.0743901000  
 54 1 14.8765707000 14.3747543000  3.0743901000  
 55 1 11.2476898000 16.4698897000  3.0743901000  
 56 1  7.0803737000 16.0318871000  3.0743901000  
 57 1  3.9663957000 13.2280487000  3.0743901000  
 58 1  3.0951894000  9.1293454000  3.0743901000  
 59 1  4.7995261000  5.3013425000  3.0743901000  
 60 1  8.4284070000  3.2062071000  3.0743901000  
 61 1 11.9331838000  3.3898847000  4.3041462000  
 62 1 15.3231841000  5.8528641000  4.3041462000  
 63 1 16.6180490000  9.8380484000  4.3041462000  
 64 1 15.3231841000 13.8232327000  4.3041462000  
 65 1 11.9331838000 16.2862121000  4.3041462000  
 66 1  7.7429130000 16.2862121000  4.3041462000  
 67 1  4.3529127000 13.8232327000  4.3041462000  
 68 1  3.0580478000  9.8380484000  4.3041462000  
 69 1  4.3529127000  5.8528641000  4.3041462000  
 70 1  7.7429130000  3.3898847000  4.3041462000  
 71 1 10.5467514000  3.0951894000  4.3041462000  
 72 1 14.3747543000  4.7995261000  4.3041462000  
 73 1 16.4698897000  8.4284070000  4.3041462000  
 74 1 16.0318871000 12.5957231000  4.3041462000  
 75 1 13.2280487000 15.7097011000  4.3041462000  
 76 1  9.1293454000 16.5809074000  4.3041462000  
 77 1  5.3013425000 14.8765707000  4.3041462000  
 78 1  3.2062071000 11.2476898000  4.3041462000  
 79 1  3.6442097000  7.0803737000  4.3041462000  
 80 1  6.4480481000  3.9663957000  4.3041462000  
 81 1  9.8380484000  3.0580478000  5.5339022000  
 82 1 13.8232327000  4.3529127000  5.5339022000  
 83 1 16.2862121000  7.7429130000  5.5339022000  
 84 1 16.2862121000 11.9331838000  5.5339022000  
 85 1 13.8232327000 15.3231841000  5.5339022000  
 86 1  9.8380484000 16.6180490000  5.5339022000  
 87 1  5.8528641000 15.3231841000  5.5339022000  
 88 1  3.3898847000 11.9331838000  5.5339022000  
 89 1  3.3898847000  7.7429130000  5.5339022000  
 90 1  5.8528641000  4.3529127000  5.5339022000  
 91 1 12.5957231000  3.6442097000  5.5339022000  
 92 1 15.7097011000  6.4480481000  5.5339022000  
 93 1 16.5809074000 10.5467514000  5.5339022000  
 94 1 14.8765707000 14.3747543000  5.5339022000  
 95 1 11.2476898000 16.4698897000  5.5339022000  
 96 1  7.0803737000 16.0318871000  5.5339022000  
 97 1  3.9663957000 13.2280487000  5.5339022000  
 98 1  3.0951894000  9.1293454000  5.5339022000  
 99 1  4.7995261000  5.3013425000  5.5339022000  
 100 1  8.4284070000  3.2062071000  5.5339022000  
 101 1 11.9331838000  3.3898847000  6.7636583000  
 102 1 15.3231841000  5.8528641000  6.7636583000  
 103 1 16.6180490000  9.8380484000  6.7636583000  
 104 1 15.3231841000 13.8232327000  6.7636583000  
 105 1 11.9331838000 16.2862121000  6.7636583000  
 106 1  7.7429130000 16.2862121000  6.7636583000  
 107 1  4.3529127000 13.8232327000  6.7636583000  
 108 1  3.0580478000  9.8380484000  6.7636583000  
 109 1  4.3529127000  5.8528641000  6.7636583000  
 110 1  7.7429130000  3.3898847000  6.7636583000  
 111 1 10.5467514000  3.0951894000  6.7636583000  
 112 1 14.3747543000  4.7995261000  6.7636583000  
 113 1 16.4698897000  8.4284070000  6.7636583000  
 114 1 16.0318871000 12.5957231000  6.7636583000  
 115 1 13.2280487000 15.7097011000  6.7636583000  
 116 1  9.1293454000 16.5809074000  6.7636583000  
 117 1  5.3013425000 14.8765707000  6.7636583000  
 118 1  3.2062071000 11.2476898000  6.7636583000  
 119 1  3.6442097000  7.0803737000  6.7636583000  
 120 1  6.4480481000  3.9663957000  6.7636583000  
 121 1  9.8380484000  3.0580478000  7.9934143000  
 122 1 13.8232327000  4.3529127000  7.9934143000  
 123 1 16.2862121000  7.7429130000  7.9934143000  
 124 1 16.2862121000 11.9331838000  7.9934143000  
 125 1 13.8232327000 15.3231841000  7.9934143000  
 126 1  9.8380484000 16.6180490000  7.9934143000  
 127 1  5.8528641000 15.3231841000  7.9934143000  
 128 1  3.3898847000 11.9331838000  7.9934143000  
 129 1  3.3898847000  7.7429130000  7.9934143000  
 130 1  5.8528641000  4.3529127000  7.9934143000  
 131 1 12.5957231000  3.6442097000  7.9934143000  
 132 1 15.7097011000  6.4480481000  7.9934143000  
 133 1 16.5809074000 10.5467514000  7.9934143000  
 134 1 14.8765707000 14.3747543000  7.9934143000  
 135 1 11.2476898000 16.4698897000  7.9934143000  
 136 1  7.0803737000 16.0318871000  7.9934143000  
 137 1  3.9663957000 13.2280487000  7.9934143000  
 138 1  3.0951894000  9.1293454000  7.9934143000  
 139 1  4.7995261000  5.3013425000  7.9934143000  
 140 1  8.4284070000  3.2062071000  7.9934143000  
 141 1 11.9331838000  3.3898847000  9.2231704000  
 142 1 15.3231841000  5.8528641000  9.2231704000  
 143 1 16.6180490000  9.8380484000  9.2231704000  
 144 1 15.3231841000 13.8232327000  9.2231704000  
 145 1 11.9331838000 16.2862121000  9.2231704000  
 146 1  7.7429130000 16.2862121000  9.2231704000  
 147 1  4.3529127000 13.8232327000  9.2231704000  
 148 1  3.0580478000  9.8380484000  9.2231704000  
 149 1  4.3529127000  5.8528641000  9.2231704000  
 150 1  7.7429130000  3.3898847000  9.2231704000  
 151 1 10.5467514000  3.0951894000  9.2231704000  
 152 1 14.3747543000  4.7995261000  9.2231704000  
 153 1 16.4698897000  8.4284070000  9.2231704000  
 154 1 16.0318871000 12.5957231000  9.2231704000  
 155 1 13.2280487000 15.7097011000  9.2231704000  
 156 1  9.1293454000 16.5809074000  9.2231704000  
 157 1  5.3013425000 14.8765707000  9.2231704000  
 158 1  3.2062071000 11.2476898000  9.2231704000  
 159 1  3.6442097000  7.0803737000  9.2231704000  
 160 1  6.4480481000  3.9663957000  9.2231704000  
 161 1  9.8380484000  3.0580478000 10.4529264000  
 162 1 13.8232327000  4.3529127000 10.4529264000  
 163 1 16.2862121000  7.7429130000 10.4529264000  
 164 1 16.2862121000 11.9331838000 10.4529264000  
 165 1 13.8232327000 15.3231841000 10.4529264000  
 166 1  9.8380484000 16.6180490000 10.4529264000  
 167 1  5.8528641000 15.3231841000 10.4529264000  
 168 1  3.3898847000 11.9331838000 10.4529264000  
 169 1  3.3898847000  7.7429130000 10.4529264000  
 170 1  5.8528641000  4.3529127000 10.4529264000  
 171 1 12.5957231000  3.6442097000 10.4529264000  
 172 1 15.7097011000  6.4480481000 10.4529264000  
 173 1 16.5809074000 10.5467514000 10.4529264000  
 174 1 14.8765707000 14.3747543000 10.4529264000  
 175 1 11.2476898000 16.4698897000 10.4529264000  
 176 1  7.0803737000 16.0318871000 10.4529264000  
 177 1  3.9663957000 13.2280487000 10.4529264000  
 178 1  3.0951894000  9.1293454000 10.4529264000  
 179 1  4.7995261000  5.3013425000 10.4529264000  
 180 1  8.4284070000  3.2062071000 10.4529264000  
 181 1 11.9331838000  3.3898847000 11.6826825000  
 182 1 15.3231841000  5.8528641000 11.6826825000  
 183 1 16.6180490000  9.8380484000 11.6826825000  
 184 1 15.3231841000 13.8232327000 11.6826825000  
 185 1 11.9331838000 16.2862121000 11.6826825000  
 186 1  7.7429130000 16.2862121000 11.6826825000  
 187 1  4.3529127000 13.8232327000 11.6826825000  
 188 1  3.0580478000  9.8380484000 11.6826825000  
 189 1  4.3529127000  5.8528641000 11.6826825000  
 190 1  7.7429130000  3.3898847000 11.6826825000  
 191 1 10.5467514000  3.0951894000 11.6826825000  
 192 1 14.3747543000  4.7995261000 11.6826825000  
 193 1 16.4698897000  8.4284070000 11.6826825000  
 194 1 16.0318871000 12.5957231000 11.6826825000  
 195 1 13.2280487000 15.7097011000 11.6826825000  
 196 1  9.1293454000 16.5809074000 11.6826825000  
 197 1  5.3013425000 14.8765707000 11.6826825000  
 198 1  3.2062071000 11.2476898000 11.6826825000  
 199 1  3.6442097000  7.0803737000 11.6826825000  
 200 1  6.4480481000  3.9663957000 11.6826825000  
 201 1  9.8380484000  3.0580478000 12.9124385000  
 202 1 13.8232327000  4.3529127000 12.9124385000  
 203 1 16.2862121000  7.7429130000 12.9124385000  
 204 1 16.2862121000 11.9331838000 12.9124385000  
 205 1 13.8232327000 15.3231841000 12.9124385000  
 206 1  9.8380484000 16.6180490000 12.9124385000  
 207 1  5.8528641000 15.3231841000 12.9124385000  
 208 1  3.3898847000 11.9331838000 12.9124385000  
 209 1  3.3898847000  7.7429130000 12.9124385000  
 210 1  5.8528641000  4.3529127000 12.9124385000  
 211 1 12.5957231000  3.6442097000 12.9124385000  
 212 1 15.7097011000  6.4480481000 12.9124385000  
 213 1 16.5809074000 10.5467514000 12.9124385000  
 214 1 14.8765707000 14.3747543000 12.9124385000  
 215 1 11.2476898000 16.4698897000 12.9124385000  
 216 1  7.0803737000 16.0318871000 12.9124385000  
 217 1  3.9663957000 13.2280487000 12.9124385000  
 218 1  3.0951894000  9.1293454000 12.9124385000  
 219 1  4.7995261000  5.3013425000 12.9124385000  
 220 1  8.4284070000  3.2062071000 12.9124385000  
 221 1 11.9331838000  3.3898847000 14.1421946000  
 222 1 15.3231841000  5.8528641000 14.1421946000  
 223 1 16.6180490000  9.8380484000 14.1421946000  
 224 1 15.3231841000 13.8232327000 14.1421946000  
 225 1 11.9331838000 16.2862121000 14.1421946000  
 226 1  7.7429130000 16.2862121000 14.1421946000  
 227 1  4.3529127000 13.8232327000 14.1421946000  
 228 1  3.0580478000  9.8380484000 14.1421946000  
 229 1  4.3529127000  5.8528641000 14.1421946000  
 230 1  7.7429130000  3.3898847000 14.1421946000  
 231 1 10.5467514000  3.0951894000 14.1421946000  
 232 1 14.3747543000  4.7995261000 14.1421946000  
 233 1 16.4698897000  8.4284070000 14.1421946000  
 234 1 16.0318871000 12.5957231000 14.1421946000  
 235 1 13.2280487000 15.7097011000 14.1421946000  
 236 1  9.1293454000 16.5809074000 14.1421946000  
 237 1  5.3013425000 14.8765707000 14.1421946000  
 238 1  3.2062071000 11.2476898000 14.1421946000  
 239 1  3.6442097000  7.0803737000 14.1421946000  
 240 1  6.4480481000  3.9663957000 14.1421946000  
 241 1  9.8380484000  3.0580478000 15.3719506000  
 242 1 13.8232327000  4.3529127000 15.3719506000  
 243 1 16.2862121000  7.7429130000 15.3719506000  
 244 1 16.2862121000 11.9331838000 15.3719506000  
 245 1 13.8232327000 15.3231841000 15.3719506000  
 246 1  9.8380484000 16.6180490000 15.3719506000  
 247 1  5.8528641000 15.3231841000 15.3719506000  
 248 1  3.3898847000 11.9331838000 15.3719506000  
 249 1  3.3898847000  7.7429130000 15.3719506000  
 250 1  5.8528641000  4.3529127000 15.3719506000  
 251 1 12.5957231000  3.6442097000 15.3719506000  
 252 1 15.7097011000  6.4480481000 15.3719506000  
 253 1 16.5809074000 10.5467514000 15.3719506000  
 254 1 14.8765707000 14.3747543000 15.3719506000  
 255 1 11.2476898000 16.4698897000 15.3719506000  
 256 1  7.0803737000 16.0318871000 15.3719506000  
 257 1  3.9663957000 13.2280487000 15.3719506000  
 258 1  3.0951894000  9.1293454000 15.3719506000  
 259 1  4.7995261000  5.3013425000 15.3719506000  
 260 1  8.4284070000  3.2062071000 15.3719506000  
 261 1 11.9331838000  3.3898847000 16.6017067000  
 262 1 15.3231841000  5.8528641000 16.6017067000  
 263 1 16.6180490000  9.8380484000 16.6017067000  
 264 1 15.3231841000 13.8232327000 16.6017067000  
 265 1 11.9331838000 16.2862121000 16.6017067000  
 266 1  7.7429130000 16.2862121000 16.6017067000  
 267 1  4.3529127000 13.8232327000 16.6017067000  
 268 1  3.0580478000  9.8380484000 16.6017067000  
 269 1  4.3529127000  5.8528641000 16.6017067000  
 270 1  7.7429130000  3.3898847000 16.6017067000  
 271 1 10.5467514000  3.0951894000 16.6017067000  
 272 1 14.3747543000  4.7995261000 16.6017067000  
 273 1 16.4698897000  8.4284070000 16.6017067000  
 274 1 16.0318871000 12.5957231000 16.6017067000  
 275 1 13.2280487000 15.7097011000 16.6017067000  
 276 1  9.1293454000 16.5809074000 16.6017067000  
 277 1  5.3013425000 14.8765707000 16.6017067000  
 278 1  3.2062071000 11.2476898000 16.6017067000  
 279 1  3.6442097000  7.0803737000 16.6017067000  
 280 1  6.4480481000  3.9663957000 16.6017067000  
 281 1  9.8380484000  3.0580478000 17.8314627000  
 282 1 13.8232327000  4.3529127000 17.8314627000  
 283 1 16.2862121000  7.7429130000 17.8314627000  
 284 1 16.2862121000 11.9331838000 17.8314627000  
 285 1 13.8232327000 15.3231841000 17.8314627000  
 286 1  9.8380484000 16.6180490000 17.8314627000  
 287 1  5.8528641000 15.3231841000 17.8314627000  
 288 1  3.3898847000 11.9331838000 17.8314627000  
 289 1  3.3898847000  7.7429130000 17.8314627000  
 290 1  5.8528641000  4.3529127000 17.8314627000  
 291 1 12.5957231000  3.6442097000 17.8314627000  
 292 1 15.7097011000  6.4480481000 17.8314627000  
 293 1 16.5809074000 10.5467514000 17.8314627000  
 294 1 14.8765707000 14.3747543000 17.8314627000  
 295 1 11.2476898000 16.4698897000 17.8314627000  
 296 1  7.0803737000 16.0318871000 17.8314627000  
 297 1  3.9663957000 13.2280487000 17.8314627000  
 298 1  3.0951894000  9.1293454000 17.8314627000  
 299 1  4.7995261000  5.3013425000 17.8314627000  
 300 1  8.4284070000  3.2062071000 17.8314627000  
 301 1 11.9331838000  3.3898847000 19.0612188000  
 302 1 15.3231841000  5.8528641000 19.0612188000  
 303 1 16.6180490000  9.8380484000 19.0612188000  
 304 1 15.3231841000 13.8232327000 19.0612188000  
 305 1 11.9331838000 16.2862121000 19.0612188000  
 306 1  7.7429130000 16.2862121000 19.0612188000  
 307 1  4.3529127000 13.8232327000 19.0612188000  
 308 1  3.0580478000  9.8380484000 19.0612188000  
 309 1  4.3529127000  5.8528641000 19.0612188000  
 310 1  7.7429130000  3.3898847000 19.0612188000  
 311 1 10.5467514000  3.0951894000 19.0612188000  
 312 1 14.3747543000  4.7995261000 19.0612188000  
 313 1 16.4698897000  8.4284070000 19.0612188000  
 314 1 16.0318871000 12.5957231000 19.0612188000  
 315 1 13.2280487000 15.7097011000 19.0612188000  
 316 1  9.1293454000 16.5809074000 19.0612188000  
 317 1  5.3013425000 14.8765707000 19.0612188000  
 318 1  3.2062071000 11.2476898000 19.0612188000  
 319 1  3.6442097000  7.0803737000 19.0612188000  
 320 1  6.4480481000  3.9663957000 19.0612188000  
 321 1  9.8380484000  3.0580478000 20.2909748000  
 322 1 13.8232327000  4.3529127000 20.2909748000  
 323 1 16.2862121000  7.7429130000 20.2909748000  
 324 1 16.2862121000 11.9331838000 20.2909748000  
 325 1 13.8232327000 15.3231841000 20.2909748000  
 326 1  9.8380484000 16.6180490000 20.2909748000  
 327 1  5.8528641000 15.3231841000 20.2909748000  
 328 1  3.3898847000 11.9331838000 20.2909748000  
 329 1  3.3898847000  7.7429130000 20.2909748000  
 330 1  5.8528641000  4.3529127000 20.2909748000  
 331 1 12.5957231000  3.6442097000 20.2909748000  
 332 1 15.7097011000  6.4480481000 20.2909748000  
 333 1 16.5809074000 10.5467514000 20.2909748000  
 334 1 14.8765707000 14.3747543000 20.2909748000  
 335 1 11.2476898000 16.4698897000 20.2909748000  
 336 1  7.0803737000 16.0318871000 20.2909748000  
 337 1  3.9663957000 13.2280487000 20.2909748000  
 338 1  3.0951894000  9.1293454000 20.2909748000  
 339 1  4.7995261000  5.3013425000 20.2909748000  
 340 1  8.4284070000  3.2062071000 20.2909748000  
 341 1 11.9331838000  3.3898847000 21.5207309000  
 342 1 15.3231841000  5.8528641000 21.5207309000  
 343 1 16.6180490000  9.8380484000 21.5207309000  
 344 1 15.3231841000 13.8232327000 21.5207309000  
 345 1 11.9331838000 16.2862121000 21.5207309000  
 346 1  7.7429130000 16.2862121000 21.5207309000  
 347 1  4.3529127000 13.8232327000 21.5207309000  
 348 1  3.0580478000  9.8380484000 21.5207309000  
 349 1  4.3529127000  5.8528641000 21.5207309000  
 350 1  7.7429130000  3.3898847000 21.5207309000  
 351 1 10.5467514000  3.0951894000 21.5207309000  
 352 1 14.3747543000  4.7995261000 21.5207309000  
 353 1 16.4698897000  8.4284070000 21.5207309000  
 354 1 16.0318871000 12.5957231000 21.5207309000  
 355 1 13.2280487000 15.7097011000 21.5207309000  
 356 1  9.1293454000 16.5809074000 21.5207309000  
 357 1  5.3013425000 14.8765707000 21.5207309000  
 358 1  3.2062071000 11.2476898000 21.5207309000  
 359 1  3.6442097000  7.0803737000 21.5207309000  
 360 1  6.4480481000  3.9663957000 21.5207309000  
 361 1  9.8380484000  3.0580478000 22.7504869000  
 362 1 13.8232327000  4.3529127000 22.7504869000  
 363 1 16.2862121000  7.7429130000 22.7504869000  
 364 1 16.2862121000 11.9331838000 22.7504869000  
 365 1 13.8232327000 15.3231841000 22.7504869000  
 366 1  9.8380484000 16.6180490000 22.7504869000  
 367 1  5.8528641000 15.3231841000 22.7504869000  
 368 1  3.3898847000 11.9331838000 22.7504869000  
 369 1  3.3898847000  7.7429130000 22.7504869000  
 370 1  5.8528641000  4.3529127000 22.7504869000  
 371 1 12.5957231000  3.6442097000 22.7504869000  
 372 1 15.7097011000  6.4480481000 22.7504869000  
 373 1 16.5809074000 10.5467514000 22.7504869000  
 374 1 14.8765707000 14.3747543000 22.7504869000  
 375 1 11.2476898000 16.4698897000 22.7504869000  
 376 1  7.0803737000 16.0318871000 22.7504869000  
 377 1  3.9663957000 13.2280487000 22.7504869000  
 378 1  3.0951894000  9.1293454000 22.7504869000  
 379 1  4.7995261000  5.3013425000 22.7504869000  
 380 1  8.4284070000  3.2062071000 22.7504869000  
 381 1 11.9331838000  3.3898847000 23.9802430000  
 382 1 15.3231841000  5.8528641000 23.9802430000  
 383 1 16.6180490000  9.8380484000 23.9802430000  
 384 1 15.3231841000 13.8232327000 23.9802430000  
 385 1 11.9331838000 16.2862121000 23.9802430000  
 386 1  7.7429130000 16.2862121000 23.9802430000  
 387 1  4.3529127000 13.8232327000 23.9802430000  
 388 1  3.0580478000  9.8380484000 23.9802430000  
 389 1  4.3529127000  5.8528641000 23.9802430000  
 390 1  7.7429130000  3.3898847000 23.9802430000  
 391 1 10.5467514000  3.0951894000 23.9802430000  
 392 1 14.3747543000  4.7995261000 23.9802430000  
 393 1 16.4698897000  8.4284070000 23.9802430000  
 394 1 16.0318871000 12.5957231000 23.9802430000  
 395 1 13.2280487000 15.7097011000 23.9802430000  
 396 1  9.1293454000 16.5809074000 23.9802430000  
 397 1  5.3013425000 14.8765707000 23.9802430000  
 398 1  3.2062071000 11.2476898000 23.9802430000  
 399 1  3.6442097000  7.0803737000 23.9802430000  
 400 1  6.4480481000  3.9663957000 23.9802430000  
 401 1  9.8380484000  3.0580478000 25.2099990000  
 402 1 13.8232327000  4.3529127000 25.2099990000  
 403 1 16.2862121000  7.7429130000 25.2099990000  
 404 1 16.2862121000 11.9331838000 25.2099990000  
 405 1 13.8232327000 15.3231841000 25.2099990000  
 406 1  9.8380484000 16.6180490000 25.2099990000  
 407 1  5.8528641000 15.3231841000 25.2099990000  
 408 1  3.3898847000 11.9331838000 25.2099990000  
 409 1  3.3898847000  7.7429130000 25.2099990000  
 410 1  5.8528641000  4.3529127000 25.2099990000  
 411 1 12.5957231000  3.6442097000 25.2099990000  
 412 1 15.7097011000  6.4480481000 25.2099990000  
 413 1 16.5809074000 10.5467514000 25.2099990000  
 414 1 14.8765707000 14.3747543000 25.2099990000  
 415 1 11.2476898000 16.4698897000 25.2099990000  
 416 1  7.0803737000 16.0318871000 25.2099990000  
 417 1  3.9663957000 13.2280487000 25.2099990000  
 418 1  3.0951894000  9.1293454000 25.2099990000  
 419 1  4.7995261000  5.3013425000 25.2099990000  
 420 1  8.4284070000  3.2062071000 25.2099990000  
 421 1 11.9331838000  3.3898847000 26.4397551000  
 422 1 15.3231841000  5.8528641000 26.4397551000  
 423 1 16.6180490000  9.8380484000 26.4397551000  
 424 1 15.3231841000 13.8232327000 26.4397551000  
 425 1 11.9331838000 16.2862121000 26.4397551000  
 426 1  7.7429130000 16.2862121000 26.4397551000  
 427 1  4.3529127000 13.8232327000 26.4397551000  
 428 1  3.0580478000  9.8380484000 26.4397551000  
 429 1  4.3529127000  5.8528641000 26.4397551000  
 430 1  7.7429130000  3.3898847000 26.4397551000  
 431 1 10.5467514000  3.0951894000 26.4397551000  
 432 1 14.3747543000  4.7995261000 26.4397551000  
 433 1 16.4698897000  8.4284070000 26.4397551000  
 434 1 16.0318871000 12.5957231000 26.4397551000  
 435 1 13.2280487000 15.7097011000 26.4397551000  
 436 1  9.1293454000 16.5809074000 26.4397551000  
 437 1  5.3013425000 14.8765707000 26.4397551000  
 438 1  3.2062071000 11.2476898000 26.4397551000  
 439 1  3.6442097000  7.0803737000 26.4397551000  
 440 1  6.4480481000  3.9663957000 26.4397551000  
 441 1  9.8380484000  3.0580478000 27.6695111000  
 442 1 13.8232327000  4.3529127000 27.6695111000  
 443 1 16.2862121000  7.7429130000 27.6695111000  
 444 1 16.2862121000 11.9331838000 27.6695111000  
 445 1 13.8232327000 15.3231841000 27.6695111000  
 446 1  9.8380484000 16.6180490000 27.6695111000  
 447 1  5.8528641000 15.3231841000 27.6695111000  
 448 1  3.3898847000 11.9331838000 27.6695111000  
 449 1  3.3898847000  7.7429130000 27.6695111000  
 450 1  5.8528641000  4.3529127000 27.6695111000  
 451 1 12.5957231000  3.6442097000 27.6695111000  
 452 1 15.7097011000  6.4480481000 27.6695111000  
 453 1 16.5809074000 10.5467514000 27.6695111000  
 454 1 14.8765707000 14.3747543000 27.6695111000  
 455 1 11.2476898000 16.4698897000 27.6695111000  
 456 1  7.0803737000 16.0318871000 27.6695111000  
 457 1  3.9663957000 13.2280487000 27.6695111000  
 458 1  3.0951894000  9.1293454000 27.6695111000  
 459 1  4.7995261000  5.3013425000 27.6695111000  
 460 1  8.4284070000  3.2062071000 27.6695111000  
 461 1 11.9331838000  3.3898847000 28.8992672000  
 462 1 15.3231841000  5.8528641000 28.8992672000  
 463 1 16.6180490000  9.8380484000 28.8992672000  
 464 1 15.3231841000 13.8232327000 28.8992672000  
 465 1 11.9331838000 16.2862121000 28.8992672000  
 466 1  7.7429130000 16.2862121000 28.8992672000  
 467 1  4.3529127000 13.8232327000 28.8992672000  
 468 1  3.0580478000  9.8380484000 28.8992672000  
 469 1  4.3529127000  5.8528641000 28.8992672000  
 470 1  7.7429130000  3.3898847000 28.8992672000  
 471 1 10.5467514000  3.0951894000 28.8992672000  
 472 1 14.3747543000  4.7995261000 28.8992672000  
 473 1 16.4698897000  8.4284070000 28.8992672000  
 474 1 16.0318871000 12.5957231000 28.8992672000  
 475 1 13.2280487000 15.7097011000 28.8992672000  
 476 1  9.1293454000 16.5809074000 28.8992672000  
 477 1  5.3013425000 14.8765707000 28.8992672000  
 478 1  3.2062071000 11.2476898000 28.8992672000  
 479 1  3.6442097000  7.0803737000 28.8992672000  
 480 1  6.4480481000  3.9663957000 28.8992672000  
 481 1  9.8380484000  3.0580478000 30.1290232000  
 482 1 13.8232327000  4.3529127000 30.1290232000  
 483 1 16.2862121000  7.7429130000 30.1290232000  
 484 1 16.2862121000 11.9331838000 30.1290232000  
 485 1 13.8232327000 15.3231841000 30.1290232000  
 486 1  9.8380484000 16.6180490000 30.1290232000  
 487 1  5.8528641000 15.3231841000 30.1290232000  
 488 1  3.3898847000 11.9331838000 30.1290232000  
 489 1  3.3898847000  7.7429130000 30.1290232000  
 490 1  5.8528641000  4.3529127000 30.1290232000  
 491 1 12.5957231000  3.6442097000 30.1290232000  
 492 1 15.7097011000  6.4480481000 30.1290232000  
 493 1 16.5809074000 10.5467514000 30.1290232000  
 494 1 14.8765707000 14.3747543000 30.1290232000  
 495 1 11.2476898000 16.4698897000 30.1290232000  
 496 1  7.0803737000 16.0318871000 30.1290232000  
 497 1  3.9663957000 13.2280487000 30.1290232000  
 498 1  3.0951894000  9.1293454000 30.1290232000  
 499 1  4.7995261000  5.3013425000 30.1290232000  
 500 1  8.4284070000  3.2062071000 30.1290232000  
 501 1 11.9331838000  3.3898847000 31.3587793000  
 502 1 15.3231841000  5.8528641000 31.3587793000  
 503 1 16.6180490000  9.8380484000 31.3587793000  
 504 1 15.3231841000 13.8232327000 31.3587793000  
 505 1 11.9331838000 16.2862121000 31.3587793000  
 506 1  7.7429130000 16.2862121000 31.3587793000  
 507 1  4.3529127000 13.8232327000 31.3587793000  
 508 1  3.0580478000  9.8380484000 31.3587793000  
 509 1  4.3529127000  5.8528641000 31.3587793000  
 510 1  7.7429130000  3.3898847000 31.3587793000  
 511 1 10.5467514000  3.0951894000 31.3587793000  
 512 1 14.3747543000  4.7995261000 31.3587793000  
 513 1 16.4698897000  8.4284070000 31.3587793000  
 514 1 16.0318871000 12.5957231000 31.3587793000  
 515 1 13.2280487000 15.7097011000 31.3587793000  
 516 1  9.1293454000 16.5809074000 31.3587793000  
 517 1  5.3013425000 14.8765707000 31.3587793000  
 518 1  3.2062071000 11.2476898000 31.3587793000  
 519 1  3.6442097000  7.0803737000 31.3587793000  
 520 1  6.4480481000  3.9663957000 31.3587793000  
 521 1  9.8380484000  3.0580478000 32.5885353000  
 522 1 13.8232327000  4.3529127000 32.5885353000  
 523 1 16.2862121000  7.7429130000 32.5885353000  
 524 1 16.2862121000 11.9331838000 32.5885353000  
 525 1 13.8232327000 15.3231841000 32.5885353000  
 526 1  9.8380484000 16.6180490000 32.5885353000  
 527 1  5.8528641000 15.3231841000 32.5885353000  
 528 1  3.3898847000 11.9331838000 32.5885353000  
 529 1  3.3898847000  7.7429130000 32.5885353000  
 530 1  5.8528641000  4.3529127000 32.5885353000  
 531 1 12.5957231000  3.6442097000 32.5885353000  
 532 1 15.7097011000  6.4480481000 32.5885353000  
 533 1 16.5809074000 10.5467514000 32.5885353000  
 534 1 14.8765707000 14.3747543000 32.5885353000  
 535 1 11.2476898000 16.4698897000 32.5885353000  
 536 1  7.0803737000 16.0318871000 32.5885353000  
 537 1  3.9663957000 13.2280487000 32.5885353000  
 538 1  3.0951894000  9.1293454000 32.5885353000  
 539 1  4.7995261000  5.3013425000 32.5885353000  
 540 1  8.4284070000  3.2062071000 32.5885353000  
 541 1 11.9331838000  3.3898847000 33.8182914000  
 542 1 15.3231841000  5.8528641000 33.8182914000  
 543 1 16.6180490000  9.8380484000 33.8182914000  
 544 1 15.3231841000 13.8232327000 33.8182914000  
 545 1 11.9331838000 16.2862121000 33.8182914000  
 546 1  7.7429130000 16.2862121000 33.8182914000  
 547 1  4.3529127000 13.8232327000 33.8182914000  
 548 1  3.0580478000  9.8380484000 33.8182914000  
 549 1  4.3529127000  5.8528641000 33.8182914000  
 550 1  7.7429130000  3.3898847000 33.8182914000  
 551 1 10.5467514000  3.0951894000 33.8182914000  
 552 1 14.3747543000  4.7995261000 33.8182914000  
 553 1 16.4698897000  8.4284070000 33.8182914000  
 554 1 16.0318871000 12.5957231000 33.8182914000  
 555 1 13.2280487000 15.7097011000 33.8182914000  
 556 1  9.1293454000 16.5809074000 33.8182914000  
 557 1  5.3013425000 14.8765707000 33.8182914000  
 558 1  3.2062071000 11.2476898000 33.8182914000  
 559 1  3.6442097000  7.0803737000 33.8182914000  
 560 1  6.4480481000  3.9663957000 33.8182914000  
 561 1  9.8380484000  3.0580478000 35.0480474000  
 562 1 13.8232327000  4.3529127000 35.0480474000  
 563 1 16.2862121000  7.7429130000 35.0480474000  
 564 1 16.2862121000 11.9331838000 35.0480474000  
 565 1 13.8232327000 15.3231841000 35.0480474000  
 566 1  9.8380484000 16.6180490000 35.0480474000  
 567 1  5.8528641000 15.3231841000 35.0480474000  
 568 1  3.3898847000 11.9331838000 35.0480474000  
 569 1  3.3898847000  7.7429130000 35.0480474000  
 570 1  5.8528641000  4.3529127000 35.0480474000  
 571 1 12.5957231000  3.6442097000 35.0480474000  
 572 1 15.7097011000  6.4480481000 35.0480474000  
 573 1 16.5809074000 10.5467514000 35.0480474000  
 574 1 14.8765707000 14.3747543000 35.0480474000  
 575 1 11.2476898000 16.4698897000 35.0480474000  
 576 1  7.0803737000 16.0318871000 35.0480474000  
 577 1  3.9663957000 13.2280487000 35.0480474000  
 578 1  3.0951894000  9.1293454000 35.0480474000  
 579 1  4.7995261000  5.3013425000 35.0480474000  
 580 1  8.4284070000  3.2062071000 35.0480474000  
 581 1 11.9331838000  3.3898847000 36.2778035000  
 582 1 15.3231841000  5.8528641000 36.2778035000  
 583 1 16.6180490000  9.8380484000 36.2778035000  
 584 1 15.3231841000 13.8232327000 36.2778035000  
 585 1 11.9331838000 16.2862121000 36.2778035000  
 586 1  7.7429130000 16.2862121000 36.2778035000  